<?xml version="1.0" encoding="UTF-8"?>

<!-- generated on 2025-12-04 04:12:24 by Eclipse SUMO GUI Version 1.24.0
<sumoConfiguration xmlns:xsi="http://www.w3.org/2001/XMLSchema-instance" xsi:noNamespaceSchemaLocation="http://sumo.dlr.de/xsd/sumoConfiguration.xsd">

    <input>
        <net-file value="quimpo-GE_torres.net.xml"/>
        <route-files value="quimpo_traffic_route.rou.xml"/>
        <additional-files value="vehicle_types.add.xml"/>
    </input>

    <output>
        <tripinfo-output value="tripinfo.xml"/>
    </output>

    <time>
        <begin value="0"/>
        <end value="86400"/>
    </time>

    <random_number>
        <seed value="42"/>
    </random_number>

</sumoConfiguration>
-->

<tripinfos xmlns:xsi="http://www.w3.org/2001/XMLSchema-instance" xsi:noNamespaceSchemaLocation="http://sumo.dlr.de/xsd/tripinfo_file.xsd">
    <tripinfo id="e_w_0.0" depart="0.00" departLane="east_start_0" departPos="4.60" departSpeed="0.00" departDelay="0.00" arrival="23.00" arrivalLane="west_end_0" arrivalPos="19.68" arrivalSpeed="11.30" duration="23.00" routeLength="230.90" waitingTime="0.00" waitingCount="0" stopTime="0.00" timeLoss="3.65" rerouteNo="0" devices="tripinfo_e_w_0.0" vType="car" speedFactor="1.08" vaporized=""/>
    <tripinfo id="e_n_0.0" depart="3.00" departLane="east_start_0" departPos="4.60" departSpeed="0.00" departDelay="3.00" arrival="27.00" arrivalLane="north_end_0" arrivalPos="29.11" arrivalSpeed="9.36" duration="24.00" routeLength="189.89" waitingTime="0.00" waitingCount="0" stopTime="0.00" timeLoss="4.85" rerouteNo="0" devices="tripinfo_e_n_0.0" vType="car" speedFactor="0.92" vaporized=""/>
    <tripinfo id="s_e_0.0" depart="5.00" departLane="south_start_0" departPos="2.30" departSpeed="0.00" departDelay="5.00" arrival="34.00" arrivalLane="east_end_0" arrivalPos="85.08" arrivalSpeed="8.67" duration="29.00" routeLength="246.72" waitingTime="0.00" waitingCount="0" stopTime="0.00" timeLoss="6.28" rerouteNo="0" devices="tripinfo_s_e_0.0" vType="motor" speedFactor="0.99" vaporized=""/>
    <tripinfo id="e_w_0.1" depart="8.00" departLane="east_start_0" departPos="6.60" departSpeed="0.00" departDelay="0.31" arrival="36.00" arrivalLane="west_end_0" arrivalPos="19.68" arrivalSpeed="9.49" duration="28.00" routeLength="228.90" waitingTime="0.00" waitingCount="0" stopTime="0.00" timeLoss="4.83" rerouteNo="0" devices="tripinfo_e_w_0.1" vType="puv" speedFactor="0.91" vaporized=""/>
    <tripinfo id="e_s_0.0" depart="6.00" departLane="east_start_0" departPos="4.60" departSpeed="0.00" departDelay="6.00" arrival="38.00" arrivalLane="south_end_1" arrivalPos="80.10" arrivalSpeed="8.90" duration="32.00" routeLength="275.47" waitingTime="0.00" waitingCount="0" stopTime="0.00" timeLoss="3.44" rerouteNo="0" devices="tripinfo_e_s_0.0" vType="car" speedFactor="0.88" vaporized=""/>
    <tripinfo id="e_w_0.2" depart="16.00" departLane="east_start_0" departPos="4.60" departSpeed="0.00" departDelay="0.62" arrival="44.00" arrivalLane="west_end_0" arrivalPos="19.68" arrivalSpeed="8.86" duration="28.00" routeLength="230.90" waitingTime="0.00" waitingCount="0" stopTime="0.00" timeLoss="3.20" rerouteNo="0" devices="tripinfo_e_w_0.2" vType="car" speedFactor="0.85" vaporized=""/>
    <tripinfo id="e_w_0.3" depart="24.00" departLane="east_start_0" departPos="4.60" departSpeed="0.00" departDelay="0.92" arrival="50.00" arrivalLane="west_end_0" arrivalPos="19.68" arrivalSpeed="9.82" duration="26.00" routeLength="230.90" waitingTime="0.00" waitingCount="0" stopTime="0.00" timeLoss="3.70" rerouteNo="0" devices="tripinfo_e_w_0.3" vType="car" speedFactor="0.93" vaporized=""/>
    <tripinfo id="e_w_0.4" depart="31.00" departLane="east_start_0" departPos="4.60" departSpeed="0.00" departDelay="0.23" arrival="64.00" arrivalLane="west_end_0" arrivalPos="19.68" arrivalSpeed="8.03" duration="33.00" routeLength="230.90" waitingTime="0.00" waitingCount="0" stopTime="0.00" timeLoss="4.09" rerouteNo="0" devices="tripinfo_e_w_0.4" vType="car" speedFactor="0.74" vaporized=""/>
    <tripinfo id="e_w_0.5" depart="39.00" departLane="east_start_0" departPos="4.60" departSpeed="0.00" departDelay="0.54" arrival="66.00" arrivalLane="west_end_0" arrivalPos="19.68" arrivalSpeed="11.66" duration="27.00" routeLength="230.90" waitingTime="0.00" waitingCount="0" stopTime="0.00" timeLoss="6.58" rerouteNo="0" devices="tripinfo_e_w_0.5" vType="car" speedFactor="1.06" vaporized=""/>
    <tripinfo id="e_n_0.1" depart="43.00" departLane="east_start_0" departPos="9.10" departSpeed="0.00" departDelay="4.29" arrival="68.00" arrivalLane="north_end_0" arrivalPos="29.11" arrivalSpeed="11.27" duration="25.00" routeLength="185.39" waitingTime="0.00" waitingCount="0" stopTime="0.00" timeLoss="7.24" rerouteNo="0" devices="tripinfo_e_n_0.1" vType="goods" speedFactor="1.04" vaporized=""/>
    <tripinfo id="e_w_0.6" depart="47.00" departLane="east_start_0" departPos="2.30" departSpeed="0.00" departDelay="0.85" arrival="73.00" arrivalLane="west_end_1" arrivalPos="19.68" arrivalSpeed="10.73" duration="26.00" routeLength="233.20" waitingTime="0.00" waitingCount="0" stopTime="0.00" timeLoss="4.86" rerouteNo="0" devices="tripinfo_e_w_0.6" vType="motor" speedFactor="1.03" vaporized=""/>
    <tripinfo id="e_w_0.7" depart="54.00" departLane="east_start_0" departPos="4.60" departSpeed="0.00" departDelay="0.16" arrival="81.00" arrivalLane="west_end_0" arrivalPos="19.68" arrivalSpeed="9.46" duration="27.00" routeLength="230.90" waitingTime="0.00" waitingCount="0" stopTime="0.00" timeLoss="3.32" rerouteNo="0" devices="tripinfo_e_w_0.7" vType="car" speedFactor="0.91" vaporized=""/>
    <tripinfo id="s_e_0.1" depart="55.00" departLane="south_start_0" departPos="6.60" departSpeed="0.00" departDelay="2.06" arrival="85.00" arrivalLane="east_end_0" arrivalPos="85.08" arrivalSpeed="9.84" duration="30.00" routeLength="242.42" waitingTime="0.00" waitingCount="0" stopTime="0.00" timeLoss="7.26" rerouteNo="0" devices="tripinfo_s_e_0.1" vType="puv" speedFactor="0.96" vaporized=""/>
    <tripinfo id="e_s_0.1" depart="59.00" departLane="east_start_0" departPos="4.60" departSpeed="0.00" departDelay="0.94" arrival="87.00" arrivalLane="south_end_1" arrivalPos="80.10" arrivalSpeed="11.62" duration="28.00" routeLength="275.47" waitingTime="0.00" waitingCount="0" stopTime="0.00" timeLoss="4.03" rerouteNo="0" devices="tripinfo_e_s_0.1" vType="car" speedFactor="1.07" vaporized=""/>
    <tripinfo id="e_w_0.8" depart="62.00" departLane="east_start_0" departPos="6.60" departSpeed="0.00" departDelay="0.46" arrival="88.00" arrivalLane="west_end_0" arrivalPos="19.68" arrivalSpeed="10.45" duration="26.00" routeLength="228.90" waitingTime="0.00" waitingCount="0" stopTime="0.00" timeLoss="4.84" rerouteNo="0" devices="tripinfo_e_w_0.8" vType="puv" speedFactor="1.02" vaporized=""/>
    <tripinfo id="e_w_0.9" depart="70.00" departLane="east_start_0" departPos="2.30" departSpeed="0.00" departDelay="0.77" arrival="99.00" arrivalLane="west_end_0" arrivalPos="19.68" arrivalSpeed="9.14" duration="29.00" routeLength="233.20" waitingTime="0.00" waitingCount="0" stopTime="0.00" timeLoss="5.68" rerouteNo="0" devices="tripinfo_e_w_0.9" vType="motor" speedFactor="0.90" vaporized=""/>
    <tripinfo id="e_w_0.10" depart="77.00" departLane="east_start_0" departPos="4.60" departSpeed="0.00" departDelay="0.08" arrival="101.00" arrivalLane="west_end_0" arrivalPos="19.68" arrivalSpeed="11.24" duration="24.00" routeLength="230.90" waitingTime="0.00" waitingCount="0" stopTime="0.00" timeLoss="4.99" rerouteNo="0" devices="tripinfo_e_w_0.10" vType="car" speedFactor="1.10" vaporized=""/>
    <tripinfo id="w_e_0.1" depart="7.00" departLane="west_start_0" departPos="2.30" departSpeed="0.00" departDelay="0.08" arrival="105.00" arrivalLane="east_end_0" arrivalPos="85.08" arrivalSpeed="10.13" duration="98.00" routeLength="227.11" waitingTime="67.00" waitingCount="2" stopTime="0.00" timeLoss="78.27" rerouteNo="0" devices="tripinfo_w_e_0.1" vType="motor" speedFactor="1.05" vaporized=""/>
    <tripinfo id="e_n_0.2" depart="81.00" departLane="east_start_0" departPos="9.10" departSpeed="0.00" departDelay="3.58" arrival="106.00" arrivalLane="north_end_0" arrivalPos="29.11" arrivalSpeed="11.28" duration="25.00" routeLength="185.39" waitingTime="0.00" waitingCount="0" stopTime="0.00" timeLoss="7.30" rerouteNo="0" devices="tripinfo_e_n_0.2" vType="goods" speedFactor="1.02" vaporized=""/>
    <tripinfo id="w_e_0.0" depart="0.00" departLane="west_start_0" departPos="4.60" departSpeed="0.00" departDelay="0.00" arrival="107.00" arrivalLane="east_end_0" arrivalPos="85.08" arrivalSpeed="12.77" duration="107.00" routeLength="224.81" waitingTime="78.00" waitingCount="1" stopTime="0.00" timeLoss="90.13" rerouteNo="0" devices="tripinfo_w_e_0.0" vType="car" speedFactor="1.24" vaporized=""/>
    <tripinfo id="e_w_0.11" depart="85.00" departLane="east_start_0" departPos="4.60" departSpeed="0.00" departDelay="0.39" arrival="108.00" arrivalLane="west_end_1" arrivalPos="19.68" arrivalSpeed="11.75" duration="23.00" routeLength="230.90" waitingTime="0.00" waitingCount="0" stopTime="0.00" timeLoss="3.66" rerouteNo="0" devices="tripinfo_e_w_0.11" vType="car" speedFactor="1.08" vaporized=""/>
    <tripinfo id="w_e_0.2" depart="14.00" departLane="west_start_0" departPos="2.30" departSpeed="0.00" departDelay="0.15" arrival="109.00" arrivalLane="east_end_1" arrivalPos="85.08" arrivalSpeed="8.24" duration="95.00" routeLength="227.11" waitingTime="62.00" waitingCount="1" stopTime="0.00" timeLoss="73.23" rerouteNo="0" devices="tripinfo_w_e_0.2" vType="motor" speedFactor="0.97" vaporized=""/>
    <tripinfo id="w_s_0.0" depart="2.00" departLane="west_start_0" departPos="2.30" departSpeed="0.00" departDelay="2.00" arrival="110.00" arrivalLane="south_end_0" arrivalPos="80.10" arrivalSpeed="8.92" duration="108.00" routeLength="218.95" waitingTime="76.00" waitingCount="1" stopTime="0.00" timeLoss="87.27" rerouteNo="0" devices="tripinfo_w_s_0.0" vType="motor" speedFactor="0.99" vaporized=""/>
    <tripinfo id="w_e_0.3" depart="21.00" departLane="west_start_0" departPos="4.60" departSpeed="0.00" departDelay="0.23" arrival="111.00" arrivalLane="east_end_1" arrivalPos="85.08" arrivalSpeed="9.68" duration="90.00" routeLength="224.81" waitingTime="58.00" waitingCount="1" stopTime="0.00" timeLoss="67.18" rerouteNo="0" devices="tripinfo_w_e_0.3" vType="car" speedFactor="0.91" vaporized=""/>
    <tripinfo id="w_e_0.4" depart="28.00" departLane="west_start_0" departPos="2.30" departSpeed="0.00" departDelay="0.31" arrival="112.00" arrivalLane="east_end_0" arrivalPos="85.08" arrivalSpeed="9.45" duration="84.00" routeLength="227.11" waitingTime="52.00" waitingCount="1" stopTime="0.00" timeLoss="64.77" rerouteNo="0" devices="tripinfo_w_e_0.4" vType="motor" speedFactor="1.08" vaporized=""/>
    <tripinfo id="w_e_0.6" depart="42.00" departLane="west_start_0" departPos="4.60" departSpeed="0.00" departDelay="0.46" arrival="113.00" arrivalLane="east_end_1" arrivalPos="85.08" arrivalSpeed="10.49" duration="71.00" routeLength="224.81" waitingTime="38.00" waitingCount="1" stopTime="0.00" timeLoss="51.20" rerouteNo="0" devices="tripinfo_w_e_0.6" vType="car" speedFactor="1.06" vaporized=""/>
    <tripinfo id="w_e_0.5" depart="35.00" departLane="west_start_0" departPos="4.60" departSpeed="0.00" departDelay="0.39" arrival="114.00" arrivalLane="east_end_0" arrivalPos="85.08" arrivalSpeed="12.23" duration="79.00" routeLength="224.81" waitingTime="47.00" waitingCount="1" stopTime="0.00" timeLoss="61.05" rerouteNo="0" devices="tripinfo_w_e_0.5" vType="car" speedFactor="1.15" vaporized=""/>
    <tripinfo id="w_e_0.7" depart="49.00" departLane="west_start_0" departPos="4.60" departSpeed="0.00" departDelay="0.54" arrival="115.00" arrivalLane="east_end_1" arrivalPos="85.08" arrivalSpeed="10.53" duration="66.00" routeLength="224.81" waitingTime="32.00" waitingCount="1" stopTime="0.00" timeLoss="44.15" rerouteNo="0" devices="tripinfo_w_e_0.7" vType="car" speedFactor="0.95" vaporized=""/>
    <tripinfo id="w_e_0.9" depart="63.00" departLane="west_start_0" departPos="4.60" departSpeed="0.00" departDelay="0.69" arrival="117.00" arrivalLane="east_end_1" arrivalPos="85.08" arrivalSpeed="10.36" duration="54.00" routeLength="224.81" waitingTime="21.00" waitingCount="1" stopTime="0.00" timeLoss="32.50" rerouteNo="0" devices="tripinfo_w_e_0.9" vType="car" speedFactor="0.97" vaporized=""/>
    <tripinfo id="w_s_0.1" depart="37.00" departLane="west_start_0" departPos="2.30" departSpeed="0.00" departDelay="2.39" arrival="118.00" arrivalLane="south_end_0" arrivalPos="80.10" arrivalSpeed="9.44" duration="81.00" routeLength="218.95" waitingTime="44.00" waitingCount="2" stopTime="0.00" timeLoss="61.24" rerouteNo="0" devices="tripinfo_w_s_0.1" vType="motor" speedFactor="1.06" vaporized=""/>
    <tripinfo id="e_w_0.12" depart="93.00" departLane="east_start_0" departPos="4.60" departSpeed="0.00" departDelay="0.70" arrival="118.00" arrivalLane="west_end_0" arrivalPos="19.68" arrivalSpeed="10.41" duration="25.00" routeLength="230.90" waitingTime="0.00" waitingCount="0" stopTime="0.00" timeLoss="3.66" rerouteNo="0" devices="tripinfo_e_w_0.12" vType="car" speedFactor="0.98" vaporized=""/>
    <tripinfo id="w_e_0.11" depart="77.00" departLane="west_start_0" departPos="4.60" departSpeed="0.00" departDelay="0.85" arrival="119.00" arrivalLane="east_end_1" arrivalPos="85.08" arrivalSpeed="10.41" duration="42.00" routeLength="224.81" waitingTime="8.00" waitingCount="1" stopTime="0.00" timeLoss="20.39" rerouteNo="0" devices="tripinfo_w_e_0.11" vType="car" speedFactor="0.97" vaporized=""/>
    <tripinfo id="w_e_0.12" depart="84.00" departLane="west_start_0" departPos="4.60" departSpeed="0.00" departDelay="0.92" arrival="120.00" arrivalLane="east_end_1" arrivalPos="85.08" arrivalSpeed="12.37" duration="36.00" routeLength="224.81" waitingTime="3.00" waitingCount="1" stopTime="0.00" timeLoss="18.66" rerouteNo="0" devices="tripinfo_w_e_0.12" vType="car" speedFactor="1.17" vaporized=""/>
    <tripinfo id="w_e_0.8" depart="56.00" departLane="west_start_0" departPos="2.30" departSpeed="0.00" departDelay="0.62" arrival="121.00" arrivalLane="east_end_0" arrivalPos="85.08" arrivalSpeed="9.53" duration="65.00" routeLength="227.11" waitingTime="29.00" waitingCount="1" stopTime="0.00" timeLoss="42.28" rerouteNo="0" devices="tripinfo_w_e_0.8" vType="motor" speedFactor="0.91" vaporized=""/>
    <tripinfo id="e_w_0.13" depart="100.00" departLane="east_start_0" departPos="4.60" departSpeed="0.00" departDelay="0.00" arrival="121.00" arrivalLane="west_end_0" arrivalPos="19.68" arrivalSpeed="13.28" duration="21.00" routeLength="230.90" waitingTime="0.00" waitingCount="0" stopTime="0.00" timeLoss="3.40" rerouteNo="0" devices="tripinfo_e_w_0.13" vType="car" speedFactor="1.22" vaporized=""/>
    <tripinfo id="w_s_0.2" depart="73.00" departLane="west_start_0" departPos="4.60" departSpeed="0.00" departDelay="3.77" arrival="122.00" arrivalLane="south_end_0" arrivalPos="80.10" arrivalSpeed="12.13" duration="49.00" routeLength="216.65" waitingTime="16.00" waitingCount="1" stopTime="0.00" timeLoss="30.44" rerouteNo="0" devices="tripinfo_w_s_0.2" vType="car" speedFactor="1.12" vaporized=""/>
    <tripinfo id="w_e_0.10" depart="70.00" departLane="west_start_0" departPos="4.60" departSpeed="0.00" departDelay="0.77" arrival="123.00" arrivalLane="east_end_0" arrivalPos="85.08" arrivalSpeed="9.64" duration="53.00" routeLength="224.81" waitingTime="18.00" waitingCount="1" stopTime="0.00" timeLoss="29.73" rerouteNo="0" devices="tripinfo_w_e_0.10" vType="car" speedFactor="0.88" vaporized=""/>
    <tripinfo id="w_e_0.14" depart="97.00" departLane="west_start_0" departPos="2.30" departSpeed="0.00" departDelay="0.08" arrival="123.00" arrivalLane="east_end_1" arrivalPos="85.08" arrivalSpeed="8.93" duration="26.00" routeLength="227.11" waitingTime="0.00" waitingCount="0" stopTime="0.00" timeLoss="4.98" rerouteNo="0" devices="tripinfo_w_e_0.14" vType="motor" speedFactor="0.99" vaporized=""/>
    <tripinfo id="w_e_0.13" depart="90.00" departLane="west_start_0" departPos="4.60" departSpeed="0.00" departDelay="0.00" arrival="125.00" arrivalLane="east_end_1" arrivalPos="85.08" arrivalSpeed="10.19" duration="35.00" routeLength="224.81" waitingTime="1.00" waitingCount="1" stopTime="0.00" timeLoss="13.33" rerouteNo="0" devices="tripinfo_w_e_0.13" vType="car" speedFactor="0.94" vaporized=""/>
    <tripinfo id="w_e_0.15" depart="104.00" departLane="west_start_0" departPos="4.60" departSpeed="0.00" departDelay="0.16" arrival="125.00" arrivalLane="east_end_0" arrivalPos="85.08" arrivalSpeed="14.17" duration="21.00" routeLength="224.81" waitingTime="0.00" waitingCount="0" stopTime="0.00" timeLoss="4.87" rerouteNo="0" devices="tripinfo_w_e_0.15" vType="car" speedFactor="1.28" vaporized=""/>
    <tripinfo id="e_w_0.14" depart="108.00" departLane="east_start_0" departPos="2.30" departSpeed="0.00" departDelay="0.31" arrival="132.00" arrivalLane="west_end_0" arrivalPos="19.68" arrivalSpeed="11.13" duration="24.00" routeLength="233.20" waitingTime="0.00" waitingCount="0" stopTime="0.00" timeLoss="4.79" rerouteNo="0" devices="tripinfo_e_w_0.14" vType="motor" speedFactor="1.11" vaporized=""/>
    <tripinfo id="w_s_0.3" depart="107.00" departLane="west_start_0" departPos="4.60" departSpeed="0.00" departDelay="3.16" arrival="136.00" arrivalLane="south_end_0" arrivalPos="80.10" arrivalSpeed="8.26" duration="29.00" routeLength="216.65" waitingTime="0.00" waitingCount="0" stopTime="0.00" timeLoss="4.74" rerouteNo="0" devices="tripinfo_w_s_0.3" vType="car" speedFactor="0.86" vaporized=""/>
    <tripinfo id="w_e_0.16" depart="111.00" departLane="west_start_0" departPos="6.60" departSpeed="0.00" departDelay="0.23" arrival="139.00" arrivalLane="east_end_0" arrivalPos="85.08" arrivalSpeed="10.35" duration="28.00" routeLength="222.81" waitingTime="0.00" waitingCount="0" stopTime="0.00" timeLoss="5.81" rerouteNo="0" devices="tripinfo_w_e_0.16" vType="puv" speedFactor="0.94" vaporized=""/>
    <tripinfo id="e_w_0.15" depart="116.00" departLane="east_start_0" departPos="4.60" departSpeed="0.00" departDelay="0.62" arrival="140.00" arrivalLane="west_end_0" arrivalPos="19.68" arrivalSpeed="11.54" duration="24.00" routeLength="230.90" waitingTime="0.00" waitingCount="0" stopTime="0.00" timeLoss="3.71" rerouteNo="0" devices="tripinfo_e_w_0.15" vType="car" speedFactor="1.04" vaporized=""/>
    <tripinfo id="w_e_0.17" depart="118.00" departLane="west_start_0" departPos="4.60" departSpeed="0.00" departDelay="0.31" arrival="140.00" arrivalLane="east_end_0" arrivalPos="85.08" arrivalSpeed="12.17" duration="22.00" routeLength="224.81" waitingTime="0.00" waitingCount="0" stopTime="0.00" timeLoss="4.93" rerouteNo="0" devices="tripinfo_w_e_0.17" vType="car" speedFactor="1.19" vaporized=""/>
    <tripinfo id="w_n_0.0" depart="5.00" departLane="west_start_0" departPos="4.60" departSpeed="0.00" departDelay="5.00" arrival="145.00" arrivalLane="north_end_1" arrivalPos="29.11" arrivalSpeed="10.54" duration="140.00" routeLength="164.53" waitingTime="116.00" waitingCount="1" stopTime="0.00" timeLoss="125.61" rerouteNo="0" devices="tripinfo_w_n_0.0" vType="car" speedFactor="1.05" vaporized=""/>
    <tripinfo id="w_n_0.1" depart="53.00" departLane="west_start_0" departPos="4.60" departSpeed="0.00" departDelay="0.83" arrival="147.00" arrivalLane="north_end_1" arrivalPos="29.11" arrivalSpeed="11.88" duration="94.00" routeLength="164.53" waitingTime="69.00" waitingCount="1" stopTime="0.00" timeLoss="79.80" rerouteNo="0" devices="tripinfo_w_n_0.1" vType="car" speedFactor="1.09" vaporized=""/>
    <tripinfo id="w_n_0.2" depart="110.00" departLane="west_start_0" departPos="4.60" departSpeed="0.00" departDelay="5.65" arrival="149.00" arrivalLane="north_end_1" arrivalPos="29.11" arrivalSpeed="11.20" duration="39.00" routeLength="164.53" waitingTime="15.00" waitingCount="1" stopTime="0.00" timeLoss="23.86" rerouteNo="0" devices="tripinfo_w_n_0.2" vType="car" speedFactor="1.02" vaporized=""/>
    <tripinfo id="w_e_0.18" depart="125.00" departLane="west_start_0" departPos="4.60" departSpeed="0.00" departDelay="0.39" arrival="149.00" arrivalLane="east_end_0" arrivalPos="85.08" arrivalSpeed="10.36" duration="24.00" routeLength="224.81" waitingTime="0.00" waitingCount="0" stopTime="0.00" timeLoss="3.63" rerouteNo="0" devices="tripinfo_w_e_0.18" vType="car" speedFactor="1.04" vaporized=""/>
    <tripinfo id="s_e_0.2" depart="109.00" departLane="south_start_0" departPos="6.60" departSpeed="0.00" departDelay="3.12" arrival="156.00" arrivalLane="east_end_0" arrivalPos="85.08" arrivalSpeed="9.17" duration="47.00" routeLength="242.42" waitingTime="10.00" waitingCount="1" stopTime="0.00" timeLoss="21.46" rerouteNo="0" devices="tripinfo_s_e_0.2" vType="puv" speedFactor="0.86" vaporized=""/>
    <tripinfo id="w_e_0.19" depart="132.00" departLane="west_start_0" departPos="9.10" departSpeed="0.00" departDelay="0.46" arrival="159.00" arrivalLane="east_end_0" arrivalPos="85.08" arrivalSpeed="10.24" duration="27.00" routeLength="220.31" waitingTime="0.00" waitingCount="0" stopTime="0.00" timeLoss="5.73" rerouteNo="0" devices="tripinfo_w_e_0.19" vType="goods" speedFactor="0.95" vaporized=""/>
    <tripinfo id="w_e_0.20" depart="139.00" departLane="west_start_0" departPos="4.60" departSpeed="0.00" departDelay="0.54" arrival="166.00" arrivalLane="east_end_0" arrivalPos="85.08" arrivalSpeed="9.45" duration="27.00" routeLength="224.81" waitingTime="0.00" waitingCount="0" stopTime="0.00" timeLoss="3.38" rerouteNo="0" devices="tripinfo_w_e_0.20" vType="car" speedFactor="0.88" vaporized=""/>
    <tripinfo id="w_e_0.21" depart="146.00" departLane="west_start_0" departPos="4.60" departSpeed="0.00" departDelay="0.62" arrival="169.00" arrivalLane="east_end_0" arrivalPos="85.08" arrivalSpeed="11.37" duration="23.00" routeLength="224.81" waitingTime="0.00" waitingCount="0" stopTime="0.00" timeLoss="4.52" rerouteNo="0" devices="tripinfo_w_e_0.21" vType="car" speedFactor="1.11" vaporized=""/>
    <tripinfo id="w_s_0.4" depart="141.00" departLane="west_start_0" departPos="2.30" departSpeed="0.00" departDelay="2.54" arrival="172.00" arrivalLane="south_end_0" arrivalPos="80.10" arrivalSpeed="8.03" duration="31.00" routeLength="218.95" waitingTime="0.00" waitingCount="0" stopTime="0.00" timeLoss="7.19" rerouteNo="0" devices="tripinfo_w_s_0.4" vType="motor" speedFactor="0.89" vaporized=""/>
    <tripinfo id="w_e_0.22" depart="153.00" departLane="west_start_0" departPos="4.60" departSpeed="0.00" departDelay="0.69" arrival="177.00" arrivalLane="east_end_0" arrivalPos="85.08" arrivalSpeed="10.06" duration="24.00" routeLength="224.81" waitingTime="0.00" waitingCount="0" stopTime="0.00" timeLoss="3.24" rerouteNo="0" devices="tripinfo_w_e_0.22" vType="car" speedFactor="0.99" vaporized=""/>
    <tripinfo id="w_n_0.3" depart="157.00" departLane="west_start_0" departPos="4.60" departSpeed="0.00" departDelay="0.48" arrival="178.00" arrivalLane="north_end_1" arrivalPos="29.11" arrivalSpeed="9.32" duration="21.00" routeLength="164.53" waitingTime="0.00" waitingCount="0" stopTime="0.00" timeLoss="3.48" rerouteNo="0" devices="tripinfo_w_n_0.3" vType="car" speedFactor="0.88" vaporized=""/>
    <tripinfo id="w_e_0.23" depart="160.00" departLane="west_start_0" departPos="4.60" departSpeed="0.00" departDelay="0.77" arrival="182.00" arrivalLane="east_end_0" arrivalPos="85.08" arrivalSpeed="11.17" duration="22.00" routeLength="224.81" waitingTime="0.00" waitingCount="0" stopTime="0.00" timeLoss="3.35" rerouteNo="0" devices="tripinfo_w_e_0.23" vType="car" speedFactor="1.12" vaporized=""/>
    <tripinfo id="s_e_0.3" depart="161.00" departLane="south_start_0" departPos="4.60" departSpeed="0.00" departDelay="2.18" arrival="191.00" arrivalLane="east_end_0" arrivalPos="85.08" arrivalSpeed="9.09" duration="30.00" routeLength="244.42" waitingTime="0.00" waitingCount="0" stopTime="0.00" timeLoss="5.37" rerouteNo="0" devices="tripinfo_s_e_0.3" vType="car" speedFactor="0.92" vaporized=""/>
    <tripinfo id="n_w_0.0" depart="5.00" departLane="north_start_0" departPos="4.60" departSpeed="0.00" departDelay="5.00" arrival="195.00" arrivalLane="west_end_0" arrivalPos="19.68" arrivalSpeed="9.27" duration="190.00" routeLength="159.47" waitingTime="165.00" waitingCount="1" stopTime="0.00" timeLoss="172.61" rerouteNo="0" devices="tripinfo_n_w_0.0" vType="car" speedFactor="0.88" vaporized=""/>
    <tripinfo id="n_w_0.1" depart="54.00" departLane="north_start_0" departPos="4.60" departSpeed="0.00" departDelay="1.06" arrival="196.00" arrivalLane="west_end_0" arrivalPos="19.68" arrivalSpeed="11.61" duration="142.00" routeLength="159.47" waitingTime="118.00" waitingCount="1" stopTime="0.00" timeLoss="129.95" rerouteNo="0" devices="tripinfo_n_w_0.1" vType="car" speedFactor="1.23" vaporized=""/>
    <tripinfo id="n_e_0.0" depart="3.00" departLane="north_start_0" departPos="4.60" departSpeed="0.00" departDelay="3.00" arrival="197.00" arrivalLane="east_end_1" arrivalPos="85.08" arrivalSpeed="10.71" duration="194.00" routeLength="208.61" waitingTime="165.00" waitingCount="1" stopTime="0.00" timeLoss="174.00" rerouteNo="0" devices="tripinfo_n_e_0.0" vType="car" speedFactor="0.99" vaporized=""/>
    <tripinfo id="n_s_0.0" depart="0.00" departLane="north_start_0" departPos="4.60" departSpeed="0.00" departDelay="0.00" arrival="198.00" arrivalLane="south_end_0" arrivalPos="80.10" arrivalSpeed="9.23" duration="198.00" routeLength="218.53" waitingTime="169.00" waitingCount="1" stopTime="0.00" timeLoss="176.87" rerouteNo="0" devices="tripinfo_n_s_0.0" vType="car" speedFactor="0.94" vaporized=""/>
    <tripinfo id="n_e_0.1" depart="53.00" departLane="north_start_0" departPos="4.60" departSpeed="0.00" departDelay="0.06" arrival="198.00" arrivalLane="east_end_1" arrivalPos="85.08" arrivalSpeed="11.48" duration="145.00" routeLength="208.61" waitingTime="117.00" waitingCount="1" stopTime="0.00" timeLoss="127.99" rerouteNo="0" devices="tripinfo_n_e_0.1" vType="car" speedFactor="1.12" vaporized=""/>
    <tripinfo id="n_w_0.2" depart="107.00" departLane="north_start_0" departPos="4.60" departSpeed="0.00" departDelay="1.12" arrival="198.00" arrivalLane="west_end_0" arrivalPos="19.68" arrivalSpeed="11.41" duration="91.00" routeLength="159.47" waitingTime="67.00" waitingCount="1" stopTime="0.00" timeLoss="76.87" rerouteNo="0" devices="tripinfo_n_w_0.2" vType="car" speedFactor="1.05" vaporized=""/>
    <tripinfo id="n_s_0.1" depart="62.00" departLane="north_start_0" departPos="9.10" departSpeed="0.00" departDelay="0.98" arrival="203.00" arrivalLane="south_end_1" arrivalPos="80.10" arrivalSpeed="10.08" duration="141.00" routeLength="214.03" waitingTime="108.00" waitingCount="1" stopTime="0.00" timeLoss="120.36" rerouteNo="0" devices="tripinfo_n_s_0.1" vType="goods" speedFactor="0.94" vaporized=""/>
    <tripinfo id="n_w_0.3" depart="160.00" departLane="north_start_0" departPos="4.60" departSpeed="0.00" departDelay="1.18" arrival="204.00" arrivalLane="west_end_0" arrivalPos="19.68" arrivalSpeed="8.39" duration="44.00" routeLength="159.47" waitingTime="17.00" waitingCount="1" stopTime="0.00" timeLoss="26.56" rerouteNo="0" devices="tripinfo_n_w_0.3" vType="car" speedFactor="0.85" vaporized=""/>
    <tripinfo id="n_s_0.2" depart="123.00" departLane="north_start_0" departPos="2.30" departSpeed="0.00" departDelay="0.97" arrival="205.00" arrivalLane="south_end_0" arrivalPos="80.10" arrivalSpeed="11.02" duration="82.00" routeLength="220.83" waitingTime="53.00" waitingCount="1" stopTime="0.00" timeLoss="63.85" rerouteNo="0" devices="tripinfo_n_s_0.2" vType="motor" speedFactor="1.11" vaporized=""/>
    <tripinfo id="n_e_0.2" depart="106.00" departLane="north_start_0" departPos="4.60" departSpeed="0.00" departDelay="0.12" arrival="206.00" arrivalLane="east_end_1" arrivalPos="85.08" arrivalSpeed="9.96" duration="100.00" routeLength="208.61" waitingTime="67.00" waitingCount="1" stopTime="0.00" timeLoss="78.96" rerouteNo="0" devices="tripinfo_n_e_0.2" vType="car" speedFactor="0.93" vaporized=""/>
    <tripinfo id="n_e_0.3" depart="159.00" departLane="north_start_0" departPos="4.60" departSpeed="0.00" departDelay="0.18" arrival="208.00" arrivalLane="east_end_1" arrivalPos="85.08" arrivalSpeed="10.86" duration="49.00" routeLength="208.61" waitingTime="16.00" waitingCount="1" stopTime="0.00" timeLoss="29.34" rerouteNo="0" devices="tripinfo_n_e_0.3" vType="car" speedFactor="1.00" vaporized=""/>
    <tripinfo id="n_s_0.3" depart="184.00" departLane="north_start_0" departPos="4.60" departSpeed="0.00" departDelay="0.95" arrival="214.00" arrivalLane="south_end_1" arrivalPos="80.10" arrivalSpeed="7.48" duration="30.00" routeLength="218.53" waitingTime="0.00" waitingCount="0" stopTime="0.00" timeLoss="3.63" rerouteNo="0" devices="tripinfo_n_s_0.3" vType="car" speedFactor="0.76" vaporized=""/>
    <tripinfo id="n_w_0.4" depart="215.00" departLane="north_start_0" departPos="6.60" departSpeed="0.00" departDelay="3.24" arrival="235.00" arrivalLane="west_end_0" arrivalPos="19.68" arrivalSpeed="10.50" duration="20.00" routeLength="157.47" waitingTime="0.00" waitingCount="0" stopTime="0.00" timeLoss="4.38" rerouteNo="0" devices="tripinfo_n_w_0.4" vType="puv" speedFactor="0.95" vaporized=""/>
    <tripinfo id="n_e_0.4" depart="212.00" departLane="north_start_0" departPos="6.60" departSpeed="0.00" departDelay="0.24" arrival="236.00" arrivalLane="east_end_1" arrivalPos="85.08" arrivalSpeed="11.42" duration="24.00" routeLength="206.61" waitingTime="0.00" waitingCount="0" stopTime="0.00" timeLoss="6.23" rerouteNo="0" devices="tripinfo_n_e_0.4" vType="puv" speedFactor="1.08" vaporized=""/>